 Gaussian 09, Revision D.01,
 Gaussian 09:  ES64L-G09RevD.01 24-Apr-2013

 ----------------------------------------------------------------------
 # opt hf/6-31g* geom=connectivity iop(6/33=2,6/42=6) pop=mk scf=tight
 test
 ----------------------------------------------------------------------

 -------------------
 Title Card Required
 -------------------
 Symbolic Z-matrix:
 Charge =  0 Multiplicity = 1

 SCF Done:  E(RHF) =  -1022.73813129     A.U. after   16 cycles
 SCF Done:  E(RHF) =  -1022.74456853     A.U. after   13 cycles
 SCF Done:  E(RHF) =  -1022.74431746     A.U. after   13 cycles
 SCF Done:  E(RHF) =  -1022.74459478     A.U. after   13 cycles
 SCF Done:  E(RHF) =  -1022.74502856     A.U. after   13 cycles
 SCF Done:  E(RHF) =  -1022.74509725     A.U. after   12 cycles
 SCF Done:  E(RHF) =  -1022.74509444     A.U. after   13 cycles
 SCF Done:  E(RHF) =  -1022.74522669     A.U. after   12 cycles
 SCF Done:  E(RHF) =  -1022.74528447     A.U. after   11 cycles
 SCF Done:  E(RHF) =  -1022.74524542     A.U. after   13 cycles
 SCF Done:  E(RHF) =  -1022.74541299     A.U. after   10 cycles
 SCF Done:  E(RHF) =  -1022.74541362     A.U. after   10 cycles
 SCF Done:  E(RHF) =  -1022.74541422     A.U. after   10 cycles
 SCF Done:  E(RHF) =  -1022.74541496     A.U. after   10 cycles
 SCF Done:  E(RHF) =  -1022.74541578     A.U. after   10 cycles
 SCF Done:  E(RHF) =  -1022.74541630     A.U. after   10 cycles
 SCF Done:  E(RHF) =  -1022.74541652     A.U. after    8 cycles
 SCF Done:  E(RHF) =  -1022.74541660     A.U. after    8 cycles
 SCF Done:  E(RHF) =  -1022.74541664     A.U. after    8 cycles
 SCF Done:  E(RHF) =  -1022.74541665     A.U. after    7 cycles
 Optimization completed.
    -- Stationary point found.

                         Standard orientation:
 ---------------------------------------------------------------------
 Center     Atomic      Atomic             Coordinates (Angstroms)
 Number     Number       Type             X           Y           Z
 ---------------------------------------------------------------------
      1          6           0        4.806049    0.489442   -0.228447
      2          6           0        3.438732    0.772685   -0.408636
      3          6           0        2.496864   -0.216124   -0.044027
      4          6           0        2.968581   -1.434766    0.471472
      5          6           0        4.302937   -1.698469    0.638662
      6          6           0        5.223137   -0.711524    0.280499
      7          1           0        5.527371    1.237240   -0.507619
      8          1           0        2.261540   -2.191645    0.751889
      9          1           0        4.631896   -2.640085    1.036378
     10          1           0        6.276652   -0.891848    0.402714
     11          7           0        3.091419    1.968579   -0.956738
     12          1           0        3.773074    2.691707   -0.948600
     13          1           0        2.137973    2.246150   -0.915575
     14          6           0        1.044458    0.024009   -0.170521
     15          6           0        0.063892   -1.063970    0.238721
     16          1           0        0.160226   -1.252594    1.303132
     17          1           0        0.286409   -1.988426   -0.280664
     18          6           0       -1.384980   -0.683424   -0.084337
     19          1           0       -1.502769   -0.533349   -1.142996
     20          6           0       -1.807540    0.570573    0.664655
     21          7           0       -2.303143   -1.728821    0.328491
     22          1           0       -2.565758   -1.754075    1.288311
     23          8           0       -2.364593    1.490484   -0.149113
     24          8           0       -1.756618    0.659971    1.839912
     25          8           0        0.586262    1.065419   -0.574616
     26          6           0       -2.614391   -2.773958   -0.480145
     27          6           0       -2.390768    2.826947    0.133549
     28          8           0       -2.186683   -2.871900   -1.596883
     29          8           0       -1.721935    3.338786    0.951865
     30          6           0       -3.354797    3.514759   -0.789663
     31          1           0       -4.350459    3.111546   -0.645000
     32          1           0       -3.349886    4.574910   -0.585881
     33          1           0       -3.069176    3.330439   -1.818539
     34          6           0       -3.577065   -3.782139    0.108133
     35          1           0       -3.469873   -3.885020    1.181905
     36          1           0       -4.592184   -3.461176   -0.102550
     37          1           0       -3.415085   -4.738405   -0.367990
 ---------------------------------------------------------------------

 The electronic state is 1-A.
 Alpha  occ. eigenvalues --  -20.63043 -20.56933 -20.56440 -20.55936 -20.53093
 Alpha  occ. eigenvalues --  -15.59719 -15.56480 -11.39774 -11.39460 -11.35761
 Alpha  occ. eigenvalues --  -11.34281 -11.30078 -11.29126 -11.25146 -11.25059
 Alpha  occ. eigenvalues --  -11.24580 -11.24299 -11.23943 -11.23608 -11.22863
 Alpha  occ. eigenvalues --  -11.22390  -1.50947  -1.42571  -1.40660  -1.40007
 Alpha  occ. eigenvalues --   -1.38030  -1.25090  -1.23879  -1.14401  -1.08219
 Alpha  occ. eigenvalues --   -1.04863  -1.03604  -1.00596  -0.99995  -0.95429
 Alpha  occ. eigenvalues --   -0.88518  -0.86074  -0.82939  -0.80546  -0.77238
 Alpha  occ. eigenvalues --   -0.74891  -0.72914  -0.72037  -0.70095  -0.69893
 Alpha  occ. eigenvalues --   -0.69167  -0.68074  -0.67512  -0.65757  -0.64760
 Alpha  occ. eigenvalues --   -0.64060  -0.62562  -0.62301  -0.61145  -0.60414
 Alpha  occ. eigenvalues --   -0.59633  -0.59128  -0.58388  -0.57948  -0.57007
 Alpha  occ. eigenvalues --   -0.56483  -0.55861  -0.54331  -0.53264  -0.52591
 Alpha  occ. eigenvalues --   -0.51662  -0.50917  -0.50513  -0.47906  -0.47564
 Alpha  occ. eigenvalues --   -0.45207  -0.44082  -0.42901  -0.42074  -0.39430
 Alpha  occ. eigenvalues --   -0.35138  -0.29428
 Alpha virt. eigenvalues --    0.09099   0.15278   0.15610   0.19345   0.21007
 Alpha virt. eigenvalues --    0.21542   0.22209   0.23586   0.24642   0.24957
 Alpha virt. eigenvalues --    0.26160   0.27305   0.29444   0.30004   0.30162

 Mulliken charges:
               1
     1  C   -0.266867
     2  C    0.375736
     3  C   -0.173687
     4  C   -0.179206
     5  C   -0.250615
     6  C   -0.157337
     7  H    0.200361
     8  H    0.214955
     9  H    0.203398
    10  H    0.211141
    11  N   -0.940330
    12  H    0.374433
    13  H    0.441118
    14  C    0.591754
    15  C   -0.439612
    16  H    0.215602
    17  H    0.228772
    18  C   -0.003054
    19  H    0.265890
    20  C    0.833883
    21  N   -0.832501
    22  H    0.401046
    23  O   -0.653803
    24  O   -0.526685
    25  O   -0.624513
    26  C    0.748529
    27  C    0.766153
    28  O   -0.603876
    29  O   -0.493521
    30  C   -0.570120
    31  H    0.203367
    32  H    0.211743
    33  H    0.211634
    34  C   -0.578613
    35  H    0.173413
    36  H    0.206612
    37  H    0.214803
 Sum of Mulliken charges =   0.00000

 Dipole moment (field-independent basis, Debye):
    X=              0.0688    Y=             -1.1864    Z=              0.5775  Tot=              1.3213
 Quadrupole moment (field-independent basis, Debye-Ang):
   XX=            -91.9321   YY=           -113.7824   ZZ=           -135.2977
   XY=              2.7299   XZ=              0.2813   YZ=            -20.9994

 ESP charges:
               1
     1  C   -0.443726
     2  C    0.635223
     3  C   -0.368350
     4  C   -0.044993
     5  C   -0.300514
     6  C    0.032917
     7  H    0.187304
     8  H    0.133650
     9  H    0.158944
    10  H    0.132161
    11  N   -1.008753
    12  H    0.411088
    13  H    0.450121
    14  C    0.651068
    15  C   -0.309849
    16  H    0.092589
    17  H    0.136513
    18  C    0.174093
    19  H    0.106798
    20  C    0.864802
    21  N   -0.799922
    22  H    0.370096
    23  O   -0.624231
    24  O   -0.555716
    25  O   -0.567097
    26  C    0.910212
    27  C    0.966549
    28  O   -0.637259
    29  O   -0.569749
    30  C   -0.566544
    31  H    0.169147
    32  H    0.146999
    33  H    0.173084
    34  C   -0.575828
    35  H    0.147586
    36  H    0.160756
    37  H    0.160832
 Sum of ESP charges =   0.00000

 Normal termination of Gaussian 09 at Tue Oct 18 10:29:30 2016.
