 Gaussian 09, Revision D.01,
 Gaussian 09:  AS64L-G09RevD.01 24-Apr-2013

 --------------------------------------
 # opt freq hf/6-31+g geom=connectivity
 --------------------------------------

 -------------------
 Title Card Required
 -------------------
 Symbolic Z-matrix:
 Charge =  0 Multiplicity = 1

 SCF Done:  E(RHF) =  -306.804728333     A.U. after   11 cycles
 SCF Done:  E(RHF) =  -306.818718121     A.U. after   11 cycles
 SCF Done:  E(RHF) =  -306.821321129     A.U. after   10 cycles
 SCF Done:  E(RHF) =  -306.821536941     A.U. after    9 cycles
 SCF Done:  E(RHF) =  -306.821553562     A.U. after    8 cycles
 SCF Done:  E(RHF) =  -306.821554417     A.U. after    8 cycles
 Optimization completed.
    -- Stationary point found.
 Normal termination of Gaussian 09 at Tue Jan  5 09:19:08 2016.

 ---------------------------------------------------------------
 #N Geom=AllCheck Guess=TCheck SCRF=Check GenChk RHF/6-31+G Freq
 ---------------------------------------------------------------

 Structure from the checkpoint file:  "g_0.chk"
 -------------------
 Title Card Required
 -------------------
 Charge =  0 Multiplicity = 1

                         Standard orientation:
 ---------------------------------------------------------------------
 Center     Atomic      Atomic             Coordinates (Angstroms)
 Number     Number       Type             X           Y           Z
 ---------------------------------------------------------------------
      1          8           0        1.261958    0.532412    0.000000
      2          6           0        0.000000    1.185388    0.000000
      3          6           0       -1.170662    0.186275    0.000000
      4          8           0       -0.724106   -1.162614    0.000000
      5          6           0        2.426952    1.365142    0.000000
      6          6           0       -1.729557   -2.182277    0.000000
      7          1           0       -0.071982    1.823032    0.876696
      8          1           0       -0.071982    1.823032   -0.876696
      9          1           0       -1.789073    0.357564    0.876696
     10          1           0       -1.789073    0.357564   -0.876696
     11          1           0        2.169497    2.419244    0.000000
     12          1           0        3.009854    1.141308    0.881890
     13          1           0        3.009854    1.141308   -0.881890
     14          1           0       -2.730107   -1.762379    0.000000
     15          1           0       -1.600102   -2.793111    0.881890
     16          1           0       -1.600102   -2.793111   -0.881890
 ---------------------------------------------------------------------

 SCF Done:  E(RHF) =  -306.821554417     A.U. after    1 cycles

 The electronic state is 1-A'.
 Alpha  occ. eigenvalues --  -20.54743 -20.54741 -11.28393 -11.28337 -11.26847
 Alpha  occ. eigenvalues --  -11.26846  -1.36970  -1.34963  -1.03107  -0.94148
 Alpha  occ. eigenvalues --   -0.90515  -0.82307  -0.68285  -0.65835  -0.64570
 Alpha  occ. eigenvalues --   -0.63478  -0.60450  -0.58776  -0.58118  -0.53331
 Alpha  occ. eigenvalues --   -0.51432  -0.45728  -0.44916  -0.41924  -0.39242
 Alpha virt. eigenvalues --    0.08395   0.08630   0.09741   0.10311   0.11078
 Alpha virt. eigenvalues --    0.11280   0.12469   0.13242   0.14125   0.15440
 Alpha virt. eigenvalues --    0.16695   0.17451   0.17689   0.20480   0.22582

 Mulliken charges:
               1
     1  O   -0.426433
     2  C   -0.191035
     3  C   -0.191035
     4  O   -0.426434
     5  C   -0.239491
     6  C   -0.239490
     7  H    0.169292
     8  H    0.169292
     9  H    0.169292
    10  H    0.169292
    11  H    0.149372
    12  H    0.184502
    13  H    0.184502
    14  H    0.149372
    15  H    0.184502
    16  H    0.184502
 Sum of Mulliken charges =   0.00000

 Dipole moment (field-independent basis, Debye):
    X=             -1.9349    Y=              2.2671    Z=              0.0000  Tot=              2.9805
 Quadrupole moment (field-independent basis, Debye-Ang):
   XX=            -32.0158   YY=            -33.7862   ZZ=            -38.5594
   XY=              5.5632   XZ=              0.0000   YZ=              0.0000

  Exact polarizability:  56.619   4.802  55.090   0.000   0.000  45.368
 Approx polarizability:  41.469  -0.872  41.747   0.000   0.000  39.022

 ******    3 imaginary frequencies (negative Signs) ******

                      1                      2                      3
                     A"                     A"                     A"
 Frequencies --   -283.9324              -217.7943              -176.7669
 Red. masses --      1.8594                 1.1894                 1.0853
 Frc consts  --      0.0883                 0.0332                 0.0200
 IR Inten    --      0.0000                 5.2895                 0.0000
 Raman Activ --      0.0962                 0.0002                 0.1504

                      4                      5                      6
                     A"                     A"                     A'
 Frequencies --     64.6616                91.0325               159.8547
 Red. masses --      2.5880                 3.1791                 3.6648
 Frc consts  --      0.0064                 0.0155                 0.0552
 IR Inten    --     29.3238                 0.0000                 4.1642
 Raman Activ --      0.1212                 0.2453                 0.8288

                      7                      8                      9
                     A'                     A'                     A'
 Frequencies --    341.7308               374.1780               646.7188
 Red. masses --      3.3692                 3.8680                 4.1789
 Frc consts  --      0.2318                 0.3191                 1.0298
 IR Inten    --      0.1528                 3.2304                 4.5135
 Raman Activ --      0.1610                 2.6134                 4.0373

                     10                     11                     12
                     A'                     A"                     A'
 Frequencies --    922.6235               950.1988              1062.0693
 Red. masses --      4.4926                 1.1890                 4.9074
 Frc consts  --      2.2532                 0.6325                 3.2614
 IR Inten    --     35.7228                 2.6615                56.3933
 Raman Activ --     46.2448                 0.0067                 6.7186

                     13                     14                     15
                     A'                     A'                     A"
 Frequencies --   1111.0184              1189.1263              1243.5703
 Red. masses --      4.6560                 3.2109                 1.5525
 Frc consts  --      3.3861                 2.6751                 1.4145
 IR Inten    --      3.6725               187.7493                 0.0000
 Raman Activ --      3.5028                 4.7099                 1.5556

                     16                     17                     18
                     A'                     A"                     A"
 Frequencies --   1246.8177              1254.9125              1255.1292
 Red. masses --      2.2078                 1.2533                 1.2331
 Frc consts  --      2.0222                 1.1628                 1.1445
 IR Inten    --     44.5903                 0.0001                 4.8547
 Raman Activ --     18.1136                 7.1420                 0.2616

                     19                     20                     21
                     A'                     A'                     A"
 Frequencies --   1328.9049              1335.4738              1414.5320
 Red. masses --      2.2424                 1.9120                 1.0731
 Frc consts  --      2.3332                 2.0091                 1.2650
 IR Inten    --     80.5367                55.3572                 5.0546
 Raman Activ --      2.9693                 1.2193                 8.5801

                     22                     23                     24
                     A"                     A'                     A'
 Frequencies --   1419.6607              1570.7826              1576.2316
 Red. masses --      1.0837                 1.2300                 1.2645
 Frc consts  --      1.2869                 1.7881                 1.8511
 IR Inten    --      0.0000                44.3751                 5.0711
 Raman Activ --     12.5665                 1.0382                 9.1733

                     25                     26                     27
                     A'                     A'                     A"
 Frequencies --   1623.6521              1626.2256              1642.8733
 Red. masses --      1.1599                 1.1710                 1.0541
 Frc consts  --      1.8016                 1.8246                 1.6763
 IR Inten    --      3.8230                 0.0410                 5.8177
 Raman Activ --      4.9325                 1.8404                 2.2897

                     28                     29                     30
                     A"                     A'                     A'
 Frequencies --   1642.9686              1662.5679              1663.4355
 Red. masses --      1.0543                 1.0517                 1.0510
 Frc consts  --      1.6767                 1.7128                 1.7135
 IR Inten    --      0.0000                 0.4643                18.0900
 Raman Activ --     23.7549                14.9154                10.8345

                     31                     32                     33
                     A'                     A'                     A'
 Frequencies --   1679.4417              1696.2713              3147.8208
 Red. masses --      1.0830                 1.0857                 1.0530
 Frc consts  --      1.7997                 1.8406                 6.1475
 IR Inten    --      1.4538                 0.9018                10.7837
 Raman Activ --      8.5432                10.2505                 8.3165

                     34                     35                     36
                     A'                     A"                     A'
 Frequencies --   3168.3167              3170.9107              3185.6177
 Red. masses --      1.0529                 1.1055                 1.0364
 Frc consts  --      6.2273                 6.5492                 6.1966
 IR Inten    --     75.9142                 0.0000               144.4634
 Raman Activ --     61.8703                35.3335                 5.0007

                     37                     38                     39
                     A'                     A"                     A'
 Frequencies --   3188.7741              3207.9798              3265.1858
 Red. masses --      1.0391                 1.1080                 1.0949
 Frc consts  --      6.2253                 6.7184                 6.8779
 IR Inten    --     28.7245               136.5782                 6.1165
 Raman Activ --    385.5805                93.4566                79.7580

                     40                     41                     42
                     A'                     A"                     A"
 Frequencies --   3265.6227              3289.5240              3289.7547
 Red. masses --      1.0947                 1.1051                 1.1051
 Frc consts  --      6.8784                 7.0454                 7.0468
 IR Inten    --     98.2898                 0.0011                84.1066
 Raman Activ --     91.8120                64.6319               102.7181

 - Thermochemistry -
 -------------------
 Temperature   298.150 Kelvin.  Pressure   1.00000 Atm.
 Atom     1 has atomic number  8 and mass  15.99491

 Molecular mass:    90.06808 amu.
 Principal axes and moments of inertia in atomic units:
                           1         2         3
     Eigenvalues --   183.964881132.729221272.17217
           X            0.76064  -0.64918   0.00000
           Y            0.64918   0.76064   0.00000
           Z            0.00000   0.00000   1.00000
 This molecule is an asymmetric top.
 Rotational symmetry number  1.
 Rotational temperatures (Kelvin)      0.47082     0.07646     0.06808
 Rotational constants (GHZ):           9.81025     1.59327     1.41863
    3 imaginary frequencies ignored.
 Zero-point vibrational energy     394625.1 (Joules/Mol)
                                   94.31767 (Kcal/Mol)
 Warning -- explicit consideration of   5 degrees of freedom as
           vibrations may cause significant error
 Vibrational temperatures:     93.03   130.98   229.99   491.67   538.36
          (Kelvin)            930.48  1327.45  1367.12  1528.08  1598.51
                             1710.89  1789.22  1793.89  1805.54  1805.85
                             1912.00  1921.45  2035.19  2042.57  2260.00
                             2267.84  2336.07  2339.77  2363.73  2363.86
                             2392.06  2393.31  2416.34  2440.55  4529.01
                             4558.50  4562.23  4583.39  4587.93  4615.56
                             4697.87  4698.50  4732.89  4733.22

 Zero-point correction=                           0.150305 (Hartree/Particle)
 Thermal correction to Energy=                    0.156443
 Thermal correction to Enthalpy=                  0.157387
 Thermal correction to Gibbs Free Energy=         0.119224
 Sum of electronic and zero-point Energies=           -306.671250
 Sum of electronic and thermal Energies=              -306.665112
 Sum of electronic and thermal Enthalpies=            -306.664167
 Sum of electronic and thermal Free Energies=         -306.702331

                     E (Thermal)             CV                S
                      KCal/Mol        Cal/Mol-Kelvin    Cal/Mol-Kelvin
 Total                   98.169             19.160             80.321
 Electronic               0.000              0.000              0.000
 Translational            0.889              2.981             39.406
 Rotational               0.889              2.981             27.074
 Vibrational             96.392             13.198             13.841
 Vibration     1          0.597              1.971              4.310
 Vibration     2          0.602              1.956              3.638
 Vibration     3          0.622              1.892              2.552
 Vibration     4          0.721              1.592              1.204
 Vibration     5          0.745              1.525              1.063

 Optimization completed.
    -- Stationary point found.
 Normal termination of Gaussian 09 at Tue Jan  5 09:19:39 2016.
